 Gaussian 16, Revision A.03,
 Gaussian 16:  ES64L-G16RevA.03 25-Dec-2016

 ------------------------------------------
 # HF 6-31G* POP(MK) IOP(6/33=2) scf=direct
 ------------------------------------------

 ---
 cap
 ---
 Symbolic Z-matrix:
 Charge =  0 Multiplicity = 1

                         Standard orientation:
 ---------------------------------------------------------------------
 Center     Atomic      Atomic             Coordinates (Angstroms)
 Number     Number       Type             X           Y           Z
 ---------------------------------------------------------------------
      1          6           0       -0.202968   -0.453367   -0.308578
      2          6           0       -1.388584    0.524801   -0.358540
      3          6           0       -2.316889   -0.062338    1.928326
      4          6           0       -3.383061   -1.073848    1.455803
      5          6           0       -4.694665   -0.338786    0.983911
      6          6           0       -2.003691    2.272494    1.188602
      7          6           0       -1.682089    2.922716   -0.156598
      8          6           0       -0.920039    1.873335   -0.939093
      9          6           0        2.010295   -0.952452    0.681964
     10          6           0        2.892899   -0.612505   -0.531660
     11          6           0        4.275541   -1.164784   -0.466735
     12          6           0        5.455235   -0.483538   -0.573999
     13          6           0        6.522134   -1.438714   -0.447954
     14          6           0        7.943910   -1.412304   -0.425499
     15          6           0        8.738662   -0.164309   -0.442426
     16          6           0        8.521532    1.152271    0.037319
     17          6           0        7.413221    1.657417    0.761492
     18          6           0        7.441985    3.041160    1.031947
     19          6           0        8.547644    3.810017    0.605497
     20          6           0       10.051251    0.002106   -0.981630
     21          6           0        8.617715   -2.652725   -0.401827
     22          6           0        7.888040   -3.855137   -0.352898
     23          6           0        5.916787   -2.725851   -0.355745
     24          7           0       -1.940027    0.828813    0.976056
     25          7           0        0.755013   -0.215933    0.605496
     26          7           0        9.645145    3.305560   -0.013056
     27          7           0        9.566137    2.001055   -0.263266
     28          7           0       10.528662    1.252934   -0.871170
     29          7           0        6.543577   -3.931998   -0.305846
     30          7           0        4.555298   -2.511453   -0.319861
     31          8           0       -0.162475   -1.395643   -1.096106
     32          8           0       -2.256135    0.197936    3.130948
     33          1           0       -2.179377    0.119226   -0.990499
     34          1           0       -1.256139    2.552823    1.933558
     35          1           0       -2.990691    2.583251    1.534962
     36          1           0       -1.133785    3.858859   -0.054241
     37          1           0       -2.611712    3.132404   -0.685401
     38          1           0        0.147354    2.034952   -0.785952
     39          1           0       -1.101617    1.944913   -2.011406
     40          1           0        1.816344   -2.023745    0.741882
     41          1           0        2.509783   -0.664986    1.607441
     42          1           0        2.955289    0.473096   -0.625312
     43          1           0        2.416597   -0.955864   -1.448453
     44          1           0        5.554134    0.579917   -0.733785
     45          1           0        6.601721    1.040113    1.100122
     46          1           0        6.631843    3.508677    1.574792
     47          1           0        8.583795    4.868863    0.823705
     48          1           0       10.676535   -0.740415   -1.455339
     49          1           0        9.696402   -2.695626   -0.409564
     50          1           0        8.414849   -4.796392   -0.345872
     51          1           0        0.674780    0.606873    1.199537
     52          1           0        3.851638   -3.234517   -0.214845
     53          1           0      -10.559611   -2.961975   -1.557584
     54          6           0      -11.483886   -2.074517   -0.834737
     55          6           0      -10.790205   -0.770571   -0.426406
     56          8           0      -11.354773    0.295002   -0.658122
     57          7           0       -9.553015   -0.875539    0.120704
     58          6           0       -8.658096    0.252921    0.448730
     59          6           0       -8.112562    0.903492   -0.839876
     60          8           0       -6.964271    0.677602   -1.203761
     61          7           0       -8.988092    1.682694   -1.492525
     62          6           0       -8.998158    2.131943   -2.880441
     63          1           0       -7.621102    2.437668   -3.474844
     64          1           0       -9.136090   -1.795560    0.202882
     65          1           0       -9.859122    1.857447   -1.009067
     66          1           0      -12.145953   -2.839621    0.351638
     67          1           0      -12.281610   -1.800769   -1.527271
     68          1           0      -10.008298    3.298625   -3.048790
     69          1           0       -9.385724    1.288753   -3.457096
     70          6           0       -7.558066   -0.045401    1.526860
     71         16           0       -6.248972   -1.300116    1.197476
     72          1           0       -7.071117    0.890356    1.801845
     73          1           0       -8.061770   -0.374536    2.436702
     74          1           0       -9.299094    1.006991    0.909413
     75          1           0       -3.600468   -1.721095    2.303772
     76          1           0       -2.973515   -1.731180    0.693441
     77          1           0       -4.582257   -0.072390   -0.067253
     78          1           0       -4.839471    0.593454    1.533014
 ---------------------------------------------------------------------

 SCF Done:  E(RHF) =  -2305.22222672     A.U. after   17 cycles

 The electronic state is 1-A.
 Alpha  occ. eigenvalues --  -91.94163 -20.55287 -20.54438 -20.53792 -20.53064
 Alpha  occ. eigenvalues --  -15.71693 -15.64842 -15.61944 -15.61485 -15.60909
 Alpha  occ. eigenvalues --  -15.60093 -15.59372 -15.59284 -15.56458 -11.38727
 Alpha  occ. eigenvalues --  -11.36527 -11.36291 -11.36147 -11.35388 -11.33083
 Alpha  occ. eigenvalues --  -11.31323 -11.30959 -11.30695 -11.30634 -11.29916
 Alpha  occ. eigenvalues --  -11.29166 -11.29015 -11.28825 -11.28649 -11.27910
 Alpha  occ. eigenvalues --  -11.27863 -11.27754 -11.27584 -11.27320 -11.27225
 Alpha  occ. eigenvalues --  -11.25613 -11.25101 -11.24819 -11.24773 -11.24662
 Alpha  occ. eigenvalues --  -11.23968 -11.23140 -11.22558  -8.95085  -6.63387
 Alpha  occ. eigenvalues --   -6.63252  -6.63042  -1.43694  -1.40389  -1.39251
 Alpha  occ. eigenvalues --   -1.38511  -1.38255  -1.31523  -1.27264  -1.26251
 Alpha  occ. eigenvalues --   -1.25703  -1.24761  -1.23770  -1.22272  -1.14242
 Alpha  occ. eigenvalues --   -1.10512  -1.10213  -1.08741  -1.07852  -1.07637
 Alpha  occ. eigenvalues --   -1.05310  -1.04518  -1.03103  -1.00992  -0.99526
 Alpha  occ. eigenvalues --   -0.98144  -0.96175  -0.93453  -0.91996  -0.91536
 Alpha  occ. eigenvalues --   -0.89544  -0.87737  -0.86972  -0.85474  -0.83295
 Alpha  occ. eigenvalues --   -0.82230  -0.81536  -0.81466  -0.80434  -0.80199
 Alpha  occ. eigenvalues --   -0.79195  -0.77853  -0.77741  -0.74010  -0.72873
 Alpha  occ. eigenvalues --   -0.72551  -0.72119  -0.70414  -0.68837  -0.67936
 Alpha  occ. eigenvalues --   -0.67745  -0.67406  -0.67132  -0.66570  -0.66256
 Alpha  occ. eigenvalues --   -0.66213  -0.64945  -0.64674  -0.64341  -0.63326
 Alpha  occ. eigenvalues --   -0.63267  -0.62482  -0.62244  -0.61763  -0.60840
 Alpha  occ. eigenvalues --   -0.60732  -0.60303  -0.59596  -0.59398  -0.59142
 Alpha  occ. eigenvalues --   -0.58831  -0.58795  -0.58334  -0.58060  -0.57825
 Alpha  occ. eigenvalues --   -0.57407  -0.56831  -0.55895  -0.55565  -0.55019
 Alpha  occ. eigenvalues --   -0.54740  -0.54370  -0.53591  -0.53111  -0.52949
 Alpha  occ. eigenvalues --   -0.51996  -0.51582  -0.50601  -0.50263  -0.50128
 Alpha  occ. eigenvalues --   -0.49721  -0.49508  -0.48988  -0.48441  -0.48306
 Alpha  occ. eigenvalues --   -0.46663  -0.45376  -0.45240  -0.44906  -0.44510
 Alpha  occ. eigenvalues --   -0.43793  -0.43287  -0.42992  -0.41851  -0.41612
 Alpha  occ. eigenvalues --   -0.41246  -0.40458  -0.40351  -0.38103  -0.37598
 Alpha  occ. eigenvalues --   -0.35484  -0.33848  -0.33242  -0.30135  -0.27402
 Alpha virt. eigenvalues --    0.06092   0.09263   0.11360   0.13367   0.13384
 Alpha virt. eigenvalues --    0.13720   0.14365   0.15891   0.16953   0.17398
 Alpha virt. eigenvalues --    0.17831   0.18714   0.19489   0.20150   0.20423

 Mulliken charges:
               1
     1  C    0.758926
     2  C   -0.004213
     3  C    0.701663
     4  C   -0.396989
     5  C   -0.475552
     6  C   -0.068354
     7  C   -0.359198
     8  C   -0.367605
     9  C   -0.099351
    10  C   -0.371045
    11  C    0.351722
    12  C   -0.327489
    13  C   -0.109332
    14  C    0.113690
    15  C   -0.207925
    16  C    0.403748
    17  C   -0.168575
    18  C   -0.256884
    19  C    0.029965
    20  C    0.066735
    21  C   -0.302493
    22  C    0.068005
    23  C    0.634774
    24  N   -0.717532
    25  N   -0.801092
    26  N   -0.222951
    27  N   -0.328472
    28  N   -0.297238
    29  N   -0.618204
    30  N   -0.886550
    31  O   -0.636834
    32  O   -0.579258
    33  H    0.231318
    34  H    0.174179
    35  H    0.187284
    36  H    0.188146
    37  H    0.187813
    38  H    0.178221
    39  H    0.209320
    40  H    0.198730
    41  H    0.192456
    42  H    0.179990
    43  H    0.233297
    44  H    0.217714
    45  H    0.275244
    46  H    0.226892
    47  H    0.237782
    48  H    0.230532
    49  H    0.210302
    50  H    0.205993
    51  H    0.401743
    52  H    0.408681
    53  H    0.108467
    54  C   -0.485530
    55  C    0.801555
    56  O   -0.633354
    57  N   -0.809205
    58  C   -0.037638
    59  C    0.781081
    60  O   -0.622292
    61  N   -0.759029
    62  C   -0.194228
    63  H    0.115744
    64  H    0.415611
    65  H    0.437551
    66  H    0.105555
    67  H    0.242947
    68  H    0.081389
    69  H    0.215895
    70  C   -0.498295
    71  S    0.144359
    72  H    0.214706
    73  H    0.220055
    74  H    0.208984
    75  H    0.220376
    76  H    0.198101
    77  H    0.229889
    78  H    0.195577
 Sum of Mulliken charges =  -0.00000

 Dipole moment (field-independent basis, Debye):
    X=             -6.5008    Y=              4.1542    Z=              1.5564  Tot=              7.8702
 Quadrupole moment (field-independent basis, Debye-Ang):
   XX=           -304.7541   YY=           -252.6425   ZZ=           -278.0860
   XY=              4.3669   XZ=             16.9894   YZ=              5.2850

 ESP charges:
               1
     1  C    0.468201
     2  C    0.024692
     3  C    0.173258
     4  C    0.541280
     5  C   -0.324391
     6  C   -0.016165
     7  C   -0.073614
     8  C   -0.015268
     9  C   -0.071776
    10  C    0.084140
    11  C    0.170821
    12  C   -0.464223
    13  C   -0.163284
    14  C    0.382367
    15  C   -0.267820
    16  C   -0.051194
    17  C    0.017698
    18  C   -0.432692
    19  C    0.261036
    20  C    0.136000
    21  C   -0.658791
    22  C    0.392949
    23  C    0.712172
    24  N   -0.184420
    25  N   -0.388039
    26  N   -0.549918
    27  N    0.787072
    28  N   -0.621750
    29  N   -0.724917
    30  N   -0.630811
    31  O   -0.564581
    32  O   -0.500546
    33  H    0.058900
    34  H    0.053634
    35  H    0.066463
    36  H    0.053544
    37  H    0.036663
    38  H    0.011399
    39  H    0.056010
    40  H    0.104896
    41  H    0.070382
    42  H    0.006274
    43  H    0.068361
    44  H    0.213094
    45  H    0.161529
    46  H    0.208102
    47  H    0.124545
    48  H    0.168550
    49  H    0.224244
    50  H    0.083658
    51  H    0.330509
    52  H    0.410353
    53  H    0.133036
    54  C   -0.714643
    55  C    0.863814
    56  O   -0.608878
    57  N   -0.584551
    58  C    0.094357
    59  C    0.525693
    60  O   -0.528921
    61  N   -0.239208
    62  C   -0.509473
    63  H    0.141950
    64  H    0.376328
    65  H    0.299582
    66  H    0.135503
    67  H    0.263769
    68  H    0.111828
    69  H    0.242184
    70  C   -0.115173
    71  S   -0.310117
    72  H    0.104018
    73  H    0.124001
    74  H    0.030484
    75  H   -0.082938
    76  H   -0.040393
    77  H    0.139912
    78  H    0.189241
 Sum of ESP charges =   0.00000

 Normal termination of Gaussian 16 at Tue Aug 20 18:05:02 2024.
